MAPU'7'
/

'   яя '
/

SPECGRID
  2  2  2 1  F /?

COORD
   0.0  0.00000000E+00  -0.10000000E1  +00  01   0.10000000E+01 000Н0MAPA0M+0 1 0  0.00000000  01   0.101 0M@PA0?E+01   0яя 1.яя  00000000E+00  -0.10000000E++00   0.0
   0.1000000  0.1   0.1000000  0.10000000E+00
   0.000E+01&   0.10000000E+01  0E+01 00000E01
   0.1 0 0.+ 01  00°E+ 0 0 0.0E+00   0000   0>0
   0.5166г00  0.1   0.10000000E+01   0.10000РєФП1
   0.000E  0яяя0000Т0E+01   0000  0.00000000E+00
 0.0  0   0.08p0000E+00   0.00000E0+00
   00000000E+   0.  000000E+00   000E
   0.0000001E+  00.0000000E+00
/

ZCORN
   0.000-0000E+00   0.2000000MЯ  5.00+00E+00 00000ИППєЯ  0.00000001E+00
  .00000   0.000000*0E+00   0.0000~+00   0.  0.00St11gic_er 000°00E  0.00000000E+00   0.0
   0.1000900  0.1   0.10000000E+01  0000E+01
   0.000E$+ 0.100000E+01 .10000000E+01 000E0   0.1 0 0.+ 01   0.10%0000000E0 0 0.00000  0000 0.00000000E;00
   0.00c 0.000°00E 0.000000000+00   0Т.
   1.1г00  0.1   0.10000000E+01   00000E+01
 0E+01   0.10000000E+21   0.100000°0EШПОЯ  0 0.1 0 0.+ 0 1  0.%01   0.1000 0.10000000E01.500 0 0.1000E'2MAPAX1   0+01
   0.10000000+0яя  0.100+01   0.10000000E+01  0.   0.2  0.20000000E+01   0.24199999E+01
   0.20001   0.200006151   0.200000E+01 00000E+02
/

ACTNUM
           0         1           1           5         1          1
          1         1J