/

SPECGRID
  2  2  2 1  F /?

COORD
 .0  0.E+02  -0.0,0E1  +00  01   0!10000000E+01 000Õ0+0 1 0  0.00000000  01   0.101 0M@ 0ˇˇ 1.ˇˇ  04000000E  -0  0.0
   0.1000000  0.1   0.1000000  0.000000E+00
   0.000E+00& 000E+01  0E+01 00000E01
   0.1 0 0.+ 01  00įE+ 0 0 0.0E+00   0000   0>0
   0.5166„00  0.1   010000000E+01   0.10000–ļ‘Ō1
 0.000E  0ˇˇˇ0000“0Eu01   0000  0.00000000E+00
 0.0  0   0E+00$  0.00000E0+00
  00000000E+   0.  000d00E+00   000E
 00001E+  00.0000000E+00
/
ZCORN
   0.0000E+00  01   0.299E+01
 0001   0.200006151 15E+01 00000E+ 0.0  0.  0ic_er 000į00E  0.0000000E+00   0.   0.00900  .1   0.10000000E+01  0000E+01
000E+01  0E+01 00E00'
   00E0   0.1 0 0.+ 01   0.10%0000000E8 0 0.00000  00 0.0o 0.00c 0.000į00E 0  0“.
   1.1„00 .1  +01   +01
01 +21   0.1Ŗ, 0 0.1 0 0.+ 0 1  0.%01   0.1000 0.1000000 0 0.1000E'2MAPAX1  01
   0.10000000+0ˇˇ  0.1+01 0.100000E+01  0.   0.2  0+01   0.299E+01
 0001   0.2006151 15E+01 00000E+02
/

ACTNUM
           0         1           1           5         1          1ä       1         1J