MA'
/

G '
/

SPECGRID
  2  2 r 1  %0.20000000E+E+01   0.20000000E+01
   0.20000000E+01   0.20000000E+01   0.00000000E+00   0.20000000E+01
   0.20000000E+01   0.20000000E+01
/

ZCORN
   0.00000000E+00   0.00000000E+00   0.00000000E+00   0.00000000E+00
   0.0000000E+000E+01
   0.1000000 00   0³001*0 000
01
/

ZCORN
   0.00000000E+00   0.00000000E+00   0.00000000E+00   0.00000000E+00
   0.0000000E+000E+01
   0.1000000 00   0³001*0 000
 00000  8 0.?1
 01   0.0 00      00 1!  00E+01 00000  8 0.?1
 01   0.0 00      00 1!  00E+01   0. 0.2 0.20000 1  1   1       1  2    1
/

