MAPUNITS
 'METRES  '0000000E+01   0.00000000E+00   0.10000000E+01
   0.00000000E+00   0.000001
   0.20000000E+01  %0.20000000E+E+01   0.20000000E+01
   0.20000000E+01   0.20000000E+01   0.00000000E+00   0.20000000E+01
   0.20000000E+01   0.20000000E+01
/

ZCORN
   0.00000000E+00   0.00000000E+00   0.00000000E+00   0.00000000E+00
   0.0000000E+000E+01
   0.10000000E+01   0.100000
/

GR!IDUNIT
 'METRES  ' '        '
/

SPECGRID
  2  000000E+0  1 0.20000000E+01   0.20000000E+01   0.20000000E+01
/

ACTNUM
          1           1           0           1
)          1           1
/

