MAPU'7METRES  '
/

'   ˇˇˇˇ '
/

SPECGRID
  2  2  2 1  F /?

COORD
   0.0  0.00000000E+00  -0.10000000E1   0.00000
   0.00000000E+00  01   0.10000000E+01 00E00Õ0MAPA0E+01  00000
   0.00000000E+00  01   0.101 0MAPA0E+01   0.1ˇˇˇˇ   00000000E+00  -0.10000000E++00   0.0
   0.1000000  0.1   0.1000000  0.10000000E+00
   0.000E+01&   0.10000000E+01   0.10000000E+01 00000E01
   0.1 0 0.+ 01  000E+ 0 0 0.0E+00   0000   0.0
   0.5166„00  0.1   0.10000000E+01   0.10000–∫‘œ1
   0.000E+01   0.10000000   0.10000000E+01   0000.0000p000E+00   0.00000000E+00
 0.0  0   0.08000000E+00   0.00000E0+00
   00000000E+00   0.  000000E+00   000E
   0.00000000E+  00.0000000E+00
/

ZCORN
   0.00000000E+00   0.2000000MAPAXﬂ  5.00+00E+00 00000000E+00   0.00000000E+00
   0.00000   0.000000*0E+00   0.0000~+00   0.  0.00St11logic_er 000∞00E  0.00000000E+00   0.0
   0.1000900  0.1   0.10000000E+01  0000E+01
   0.000E+ 0.10000000E+01 .10000000E+01 000E01
   0.1 0 0.+ 01   0.10%0000000E+ 0 0 0.00000+00   0000 0.00000000E+00
   0.00c 0.00000∞00E 0.000000000+00   0“.
   0.1„00  0.1   0.10000000E+01   00000E+01
 0E+01   0.10000000E+21   0.10000000EÿœŒﬂ  0.*0000000E+01
   0.1 0 0.+ 01   0.10%01   0.1000 0.10000000E+01   5.10000 0.1000E'21   0+01
   0.10000000+0ˇˇ  0.100+01   0.10000000E+01  0.2000ˇ00001   0.2  0.20000000E+01   0.20199999E+01
   0.20000000E+01   0.20000615E+01   0.200000E+01 00000E+02
/

ACTNUM
           0           1           1           5         1          1
           1         1
/

