MAPUNITS
 'METRES  '
/

GRIDUNIT
 'METRES  ' '        '
/

SPECGRID
  2  2  2  1  F / 

COORD
   0.00000000E+00   0.00000000E+00  -0.10000000E+01   0.00000000E+00
   0.00000000E+00  -0.=0000000E+01   0.10000000E+01   0.00000000E+00
  -0.10000000E+01   0.10000000E+01   0.00000000E+00  -0.10000000E+01
   0.00000000E+00   0.10000000E+01  -0.10000000E+01   0.00000000E+00
   0.10  -0.10000000E+01   0.10000000E+01   0.10000000E+01
0E+01   0.10000000E+01   0.10000000E+01  -0.10000000E+01
   0.00000000E+00   0.00000000E+00   0.00000000E+00   0.00000000E+00
   0.00000000E+00   0.00000000E+00   0.00000000E+00   0.00000000E+00
   0.00000000E+00   0.00000000E+00   0.00000000E+00   0.00000000E+00
   0.00000000E+00   0.00000000E+00   0.00000000E+00   0.00000000E+00
   0.00000000E+00   0.00000000E+00   0.00000000E+00   0.00000000E+00
   0.00000000E+00   0.00000000E+00   000E+00   0.00000000E+00
   0.00000000E+00   0.00000000E+00   0.00000000E+00   0.00000000E+00
   0.00000000E+00   0.00000000E+00
/

ZCORN
   0.00000000E+00   0.00000000E+00   0.00000000E+00   0.00000000E+00
   0.00000000E+00   0.00000000E+00   0.00000000E+00   0.00000000E+00
   0.00000000E+00Ā  0.00000000E+00   0.00000000E+00   0.00000000E+00
   0.00000000E+00   0.00000000E+00   0.00000000E+00   0.00000000E+00
   0.10000000E+01   0.10000000E+01   0.10000000E+01   0.10000000E+01
   0.10000000E+01   0.10000000E+01   0.10000000E+01   0.10000000E+01
   0.10000000E+01   0.10000000E+01   0.10000000E+01   0.10000000E+01
   0.10000000E+01   0.10000000E+01   0.10000000E+01   0.10000000E+01
   0.10000000E+01   0.10000000E+01   0.10000000E+01   0.10000000E+01
   0.10000000E+01   0.10000000E+01   0.10000000E+01   0.10000000E+01
   0.10000000E+01   0.10000000E+01   0.10000000E+01   0.10000000E+01
   0.10000000E+01   0.10000000E+01   0.10000000E+01   0.10000000E+01
   0.20000000E+01   0.20000000E+01   0.20000000E+01   0.20000000E+01
   0.20000000E+01   0.20000000E+01   0.20000000E+01   0.20000000E+01
   0.20000000E+01   0.20000 1           1           1           1
           1           1
/

