MAPUNIT    '
/

SPECGRID
  2  2  2  1  F / 

COORD
   0.00000000E+00   0.00000000E+00  -0.10000000E+01   0.00000000E+00
   0.00000000E+00  -0.10000000E+01  000000E+01   0.00000000E+00
0.10000000E+01   0.100000   0.00000000E+00  -0.10000002E+01
   0.00000000E+00   0.10000000E+01  -0.10000000E+01   0.00000000E+00
   0.10000000E+01  -0.10000000E+01   0.10000000E+01   0.10000000E+01
  -0.10000000E+01   0.10000000E+01  01  -0.10000000E+01
   0.00000000E+00   0.00000000E+00   0.00000000E+00   0.00000000E+00
   0.00000000E+00   0.00000000E+00   0.00000000E+00   0.000>00000E+00
   0.00000000E+00   0.00000000E+00   0.00000000E+00   0.00000000E+00
   0.0000    E+00   0.00000000E+00   0.00000000E+00   0.0000  00E+00
   0.00000000E+00   0.00000000E+00   0.00000000E+00   0.00000000E+00
   0.0000   0.00000000E+00   0.00000000E+00   0.00000000E+00
   0.0ę000000E+00   0.00000000E+00   0.000000   0.00000000E+00
   0.0000000E+00   0.00000000E+00
/

ZCORN
   0.00000000N+00   0.00000000E+0   0           1
  0   0.00000000E+00   0 0.00000000E+00
   .1000  0.10000000E+01   0.10000000E+01   0.10000000E+01
  .10000000E+01   0.10000000E+01   0.10000000E+01   0.10000000E+01
   0.10000000E+01   0.10000000E+01   0.10000000E+01   0.10000000E+01
   0.10000000E+01   0.10+01   0.201   0.20000000E+01   0.20000000E+01
   0.20000000E+01'   0.200000+01   0.20000000E+01   0.20200000E+01
   0.20000000E+01   0.200000:00E+01   0.20.0000E+00
   .10000000E+0╬▀  0.10000000E+01   0.10000000E+01   0.10000000E+01
   0.10000000E+01   0.10000000E+01   0.10000000E+01   0.80000000E+01
   0.1000000 0.10000000E+01   0.10000000E+01   0.1000ŽŽ0E+01
   0.10000000E+01   0.10000000E+01   0.10000000.10000 0.10000ė000+01
   0.20000000E+01   0.20000000E+01   0.20000000E+01   0.20000000E+ 0.20000000E+01   0.20000000E+01   0.210000E+01   0.20
   0.20000000E+01   0.20000:00E+01   0.20000000E+01   0.20000000E+01
   0.20000000E+01   0.20000000E+01   0.20000000E+01   0.42000000E+02
/

ACTNUM
           0           1&          1           1           0           1
           1           1
/

