/

SPECGRID
  2  2  2 1  F /?

COORD
   0.0  0.E+02  -0.0,0E1  +00  01   0!10000000E+01 000Н0+0 1 0  0.00000000  01   0.101 0M@ 0яя 1.яя  00000000E  -0  0.0
   0.1000000  0.1   0.1000000  0.10000000E+00
   0.000E+00&   0.10000000E+01  0E+01 00000E01
   0.1 0 0.+ 01  00°E+ 0 0 0.0E+00   0000   0>0
   0.5166г00  0.1   0.10000000E+01   0.10000РєФП1
 0.000E  0яяя0000Т0Eu01   0000  0.00000000E+00
 0.0  0   0E+00   0.00000E0+00
   00000000E+   0.  000d00E+00   000E
 00001E+  00.0000000E+00
/
ZCORN
   0.000-0000E+ 0.2000000MЯ  5.00+00E+00 00008ИППєЯ  0.00000001E+00  .00000   0.00000*0E+00   0.0  0.  0ic_er 000°00E  0.0000000E+00   0.   0.00900  .1   0.10000000E+01  0000E+01
000E+01  0E+01 00E01
   00E0   0.1 0 0.+ 01   0.10%0000000E8 0 0.00000  00 0.0o 0.00c 0.000°00E 0  0Т.
   1.1г00 .1  +01   +01
01 +21   0.1Я, 0 0.1 0 0.+ 0 1  0.%01   0.1000 0.1000000 0 0.1000E'2MAPAX1  01
   0.10000000+0яя  0.1+01 0.100000E+01  0.   0.2  0+01   0.299E+01
 0.20001   0.200006151   0.2615E+01 00000E+02
/

ACTNUM
           0         1           1           5         1          1Љ       1         1J