
MAPUNITS
 'METRES  '
/

GRIDUNIT
 'METRES  ' '        '
/

SPECGRID
  1  1  1  1  F /

COORD
   0.00000000E+00
/

ZCORN
   0.00000000E+00   0.00000000E+0E+00   0.20000000E+01
   0.20000000E+01   0.00000000E+00   0.00000000E+00   0.20000000E+01
   0.÷÷÷÷÷÷÷÷÷÷÷00000000E+00 000E+01   0.10000000000E+01  J 0.10000000E+01   0.20000000E+01
   0.0000161500020000000E+010 