MAPU'7'
/˙˙ '
/

SPECGRID
  2  2  2 1  F /?

COORD
   0.0  0.00000000E+02  -0.1000000,0E1  +00  01   0.10000000E+01 000Í0MA0M+0 1 0  0.00000000  01   0.101 0M@ 0˙˙ 1.˙˙  00000000E  -010000000E++00`  0.0
   0.1000000  0.1   0.1000000  0.10000000E+00
   0.000E+00&   0.10000000E+01  0E+01 00000E01
   0.1 0 0.+ 01  00°E+ 0 0 0.0E+00   0000   0>0
   0.5166ă00  0.1   0.10000000E+01   0.10000ĐşÔĎ1
   0.000E  0˙˙˙0000Ň0Eu01   0000  0.00000000E+00
 0.0  0   0E+00   0.00000E0+00
   00000000E+   0.  000000E+00   000E
 0000001E+  00.0000000E+00
/

ZCORN
   0.000-0000E+00   0.2000000Mß  5.00+00E+00 00000ČĎĎşß  0.00000001E+00  .00000   0.00000*0E+00   0.0000~+00   0.  0ic_er 000°00E  0.0000000E+00   0.0
   0.1000900  .1   0.10000000E+01  0000E+01
000E+01  0E+01 00000E01
   00E0   0.1 0 0.+ 01   0.10%0000000E0 0 0.00000  00 0.00 0.00c 0.000°00E 0.00000+00   0Ň.
   1.1ă00  0.1   0.10000000E+01   +01
 0E+01   0.10000000E+21   0.100000°0EŘĎÎß  0 0.1 0 0.+ 0 1  0.%01   0.1000 0.1000000 0 0.1000E'2MAPAX1  01
   0.10000000+0˙˙  0.100+01 0.1000000E+01  0.   0.2  0.20000000E+01   0.24199999E+01
 0.20001   0.200006151   0.20000E+01 00000E+02
/

ACTNUM
           0         1           1           5         1          1Š       1         1J