
MAPUNITS
 'METRES  'IDUNIT
 'METRES  ' '-        '
/

SPECGRID
  1  1  1  1  F
COORD
   0E+00
/

ZCORN
   0.-0000000E+00   0.00000000E+0E+00   0.20000000EA+01
   0.Ę000  0.00000000E+00  I0.00000000E+00!  0.20000000E+01)   0.„„„„„„ „„„„0000
0M