SPECGRID
COORD
/
ACTNUM
/
ZCORN /
MAPAXES