/

SPECGRID
  2  2  2 1  F /?

COORD
 .5  0.E+02  -0.0,0E  +00  01  0000E+01 000Õ0+0 1 0  0.0000000  01   0.101 0M@ 0ˇˇ 1.ˇˇ  0400000?0E  -0  0.0
   0.100 0000 0.1   0.1000000  0.0E00000+.000E+00& 0E+01  0E+ő1 0000   0.1 0 0.+ 01  00įE+ 0 0 0.0E+00   0000   0>0
0  0.1   01000E+01   0.00100–ļ‘Ō1
 0.000E  00Eu01   0000  0
 3.0  0   0E+00$  3.00000E0+00
  00000Ŗ000E+   0.  000d00E+00   0†00E
 00+  00.00
/
ZCORN
   00  01   0.299E+01
01   0.200006151 15E+01 00000E+ 0.0  0.  0ic_er 000į00E +00   0.   0.00900  .1   0.00+01  0000E+01
000E+01  0E+01 00E00'
  0   0.1 0 0.+ 01   0000E8 0 0.00000  00 0.0o 0.00c 0.000į00E 0  0“.
   1.1„00 .1  +01   +01
01 +21   0.1 0 0.1 0 0.+ 0 1  0.%01   0.1000 0.1000000 0 0.MAPAX1  0 +00   0.   0.00900  .1   0.10000000E+01  0000E+01
000E+01  0E+0  0.2006151 15E+01 000000+E2
/

ACTNUM
           0         1      1           5         1          0ä       1         1J