/

SPECGRID
  2  2  2 1  F /?

COORD
 .5  0.E+02  -0.0,0E  +00  01  0000E+01 000Í0+0 1 0  .000°00E 0  0Ò.
   1.1ã00 .1  +01   +01
01 +21   0.1 0000 0.1  20.1000000 00E+00& 0E+01  0E+Î1 0000   0.1 0 0.+ 01  00°E+ 0 0 0.0E+00   0000   5>0
0  0.1   01000E+01  000E  00Eu01   0000  0
 3.0  0   0E+00$  3.0000E00
  00000ß000E+   0.  000d00E+00  0 0 00E
 00+  00.00
/
ZCORN
   00  01   0.299E+01
41   0.200006151 15E+01 00000E+ 0.0  0.$ 0ic_000°00E +00   0.  900  .1   0.00+01 00 00E+01
0E+01  0E+01 00E00'
  0 01) 1   0      0.1 0 0.+ 0   1000E8 0 0.00000  00 0.0o 0.00c 0.000°0 .1  +01   +01
01 +21   0.1 0 0.1 0 0.+ 0 1  0.%01   0.1000 0.1000000› 0 0.MAPAXÏé 0 +00   0.   0900  .1   0.1000+01  0000E+01
000E+01  0E+0  0.2006151 15E+01 0&0000+E2
/

ACTNUM          0         1      1         5         1          0Š 
0E+01          1J