
SPECGRID
2 2 2
COORD 0 0 0! 0@ 2 0Đ +0 0 0 0 1 0 0 1 0 0 0 0! 1 11*1 1 0 0 1 0 8 0 0 1 11*1 0 0 0 0
/
ZCORN
0 1 31*0! 0 0 0 0 1 0 1 1 0 0 0 0 1 11*1 0 0 0 1 60 0
/ 
ACTNUM 0 1 1 2 1 0
0 1