M
SPECGRID 
COORD
/
ACTNUM
/
ZCORN /
MAPAXES