MAPUNITS
 'METRES  '
/

GRIDUNIT
 'METRES  ' '        '
/

SPECGRID
  3  3  3  1  F / 

COORD
   0.00000000E+00   0.00000000E+00   0.00000000E+00   0.00000000E+00
   0.00000000E+00   0.30000000E+01   0.10000000E+01   0.00000000E+00
   0.00000000E+00   0.10000000E+01   0.00000000E+00   0.30000000E+01
   0.20000000E+01   0.00000000E+00   0.00000000E+00   0.20000000E+01
   0.00000000E+00   0.30000000E+01   0.30000000E+01   0.00000000E+00
   0.00000000E+00   0.30000000E+01   0.00000000E+00   0.30000000E+01
   0.00000000E+00   0.10000000E+01   0.00000000E+00   0.00000000E+00
   0.10000000E+01   0.30000000E+01   0.10000000E+01   0.10000000E+01
   0.00000000E+00   0.10000000E+01   0.10000000E+01   0.30000000E+01
   0.20000000E+01   0.10000000E+01   0.00000000E+00   0.20000000E+01
   0.10000000E+01   0.30000000E+01   0.30000000E+01   0.10000000E+01
   0.00000000E+00   0.30000000E+01   0.10000000E+01   0.30000000E+01
   0.00000000E+00   0.20000000E+01   0.00000000E+00   0.00000000E+00
   0.20000000E+01   0.30000000E+01   0.10000000E+01   0.20000000E+01
   0.00000000E+00   0.10000000E+01   0.20000000E+01   0.30000000E+01
   0.20000000E+01   0.20000000E+01   0.00000000E+00   0.20000000E+01
   0.20000000E+01   0.30000000E+01   0.30000000E+01   0.20000000E+01
   0.00000000E+00   0.30000000E+01   0.20000000E+01   0.30000000E+01
   0.00000000E+00   0.30000000E+01   0.00000000E+00   0.00000000E+00
   0.30000000E+01   0.30000000E+01   0.10000000E+01   0.30000000E+01
   0.00000000E+00   0.10000000E+01   0.30000000E+01   0.30000000E+01
   0.20000000E+01   0.30000000E+01   0.00000000E+00   0.20000000E+01
   0.30000000E+01   0.30000000E+01   0.30000000E+01   0.30000000E+01
   0.00000000E+00   0.30000000E+01   0.30000000E+01   0.30000000E+01
/

ZCORN
   0.00000000E+00   0.00000000E+00   0.00000000E+00   0.00000000E+00
   0.00000000E+00   0.00000000E+00   0.00000000E+00   0.00000000E+00
   0.00000000E+00   0.00000000E+00   0.00000000E+00   0.00000000E+00
   0.00000000E+00   0.00000000E+00   0.00000000E+00   0.00000000E+00
   0.00000000E+00   0.00000000E+00   0.00000000E+00   0.00000000E+00
   0.00000000E+00   0.00000000E+00   0.00000000E+00   0.00000000E+00
   0.00000000E+00   0.00000000E+00   0.00000000E+00   0.00000000E+00
   0.00000000E+00   0.00000000E+00   0.00000000E+00   0.00000000E+00
   0.00000000E+00   0.00000000E+00   0.00000000E+00   0.00000000E+00
   0.10000000E+01   0.10000000E+01   0.10000000E+01   0.10000000E+01
   0.10000000E+01   0.10000000E+01   0.10000000E+01   0.10000000E+01
   0.10000000E+01   0.10000000E+01   0.10000000E+01   0.10000000E+01
   0.10000000E+01   0.10000000E+01   0.10000000E+01   0.10000000E+01
   0.10000000E+01   0.10000000E+01   0.10000000E+01   0.10000000E+01
   0.10000000E+01   0.10000000E+01   0.10000000E+01   0.10000000E+01
   0.10000000E+01   0.10000000E+01   0.10000000E+01   0.10000000E+01
   0.10000000E+01   0.10000000E+01   0.10000000E+01   0.10000000E+01
   0.10000000E+01   0.10000000E+01   0.10000000E+01   0.10000000E+01
   0.10000000E+01   0.10000000E+01   0.10000000E+01   0.10000000E+01
   0.10000000E+01   0.10000000E+01   0.10000000E+01   0.10000000E+01
   0.10000000E+01   0.10000000E+01   0.10000000E+01   0.10000000E+01
   0.10000000E+01   0.10000000E+01   0.10000000E+01   0.10000000E+01
   0.10000000E+01   0.10000000E+01   0.10000000E+01   0.10000000E+01
   0.10000000E+01   0.10000000E+01   0.10000000E+01   0.10000000E+01
   0.10000000E+01   0.10000000E+01   0.10000000E+01   0.10000000E+01
   0.10000000E+01   0.10000000E+01   0.10000000E+01   0.10000000E+01
   0.10000000E+01   0.10000000E+01   0.10000000E+01   0.10000000E+01
   0.20000000E+01   0.20000000E+01   0.20000000E+01   0.20000000E+01
   0.20000000E+01   0.20000000E+01   0.20000000E+01   0.20000000E+01
   0.20000000E+01   0.20000000E+01   0.20000000E+01   0.20000000E+01
   0.20000000E+01   0.20000000E+01   0.20000000E+01   0.20000000E+01
   0.20000000E+01   0.20000000E+01   0.20000000E+01   0.20000000E+01
   0.20000000E+01   0.20000000E+01   0.20000000E+01   0.20000000E+01
   0.20000000E+01   0.20000000E+01   0.20000000E+01   0.20000000E+01
   0.20000000E+01   0.20000000E+0 0.20000000E+01   0.20000000E+01   0.20000000E+01
   0.20000000E+01   0.20000000E+01   0.20000000E+01   0.20000000E+01
   0.30000000E+01   0.30000000E+01   0.30000000E+01   0.30000000E+01
   0.30000000E+01   0.30000000E+01   0.30000000E+01   0.30000000E+01
   0.30000000E+01   0.30000000E+01   0.30000000E+01   0.30000000E+01
   0.30000000E+01   0.30000000E+01   0.30000000E+01   0.30000000E+01
   0.30000000E+01   0.30000000E+01   0.30000000E+01   0.30000000E+01
   0.30000000E+01   0.30000000E+01   0.30000000E+01   0.30000000E+01
   0.30000000E+01   0.30000000E+01   0.30000000E+01   0.30000000E+01
   0.30000000E+01   0.30000000E+01   0.30000000E+01   0.30000000E+01
   0.30000000E+01   0.30000000E+01   0.30000000E+01   0.30000000E+01
/

ACTNUM
           1           1     1   0.20000000E+01   0.20000000E+01
   0.20000000E+01   0.20000000E+01   0.20000000E+01   0.20000000E+01
   0.20000000E+01   0.20000000E+01   0.20000000E+01   0.20000000E+01
   0.20000000E+01   0.20000000E+01   0.20000000E+01   0.20000000E+01
   0.20000000E+01   0.20000000E+01   0.20000000E+01   0.20000000E+01
   0.20000000E+01   0.20000000E+01   0.20000000E+01   0.20000000E+01
   0.20000000E+01   0.20000000E+01   0.20000000E+01   0.20000000E+01
   0.20000000E+01   0.20000000E+01   0.20000000E+01   0.20000000E+01
   0.20000000E+01   0.20000000E+01   0.20000000E+01   0.20000000E+01
   0.20000000E+01   0.20000000E+01   0.20000000E+01   0.20000000E+01
   0.20000000E+01   0.20000000E+01   0.20000000E+01   0.20000000E+01
   0.30000000E+01   0.30000000E+01   0.30000000E+01   0.30000000E+01
   0.30000000E+01   0.30000000E+01   0.30000000E+01   0.30000000E+01
   0.30000000E+01   0.30000000E+01   0.30000000E+01   0.30000000E+01
   0.30000000E+01   0.30000000E+01   0.30000000E+01   0.30000000E+01
   0.30000000E+01   0.30000000E+01   0.30000000E+01   0.30000000E+01
   0.30000000E+01   0.30000000E+01   0.30000000E+01   0.30000000E+01
   0.30000000E+01   0.30000000E+01   0.30000000E+01   0.30000000E+01
   0.30000000E+01   0.30000000E+01   0.30000000E+01   0.30000000E+01
   0.30000000E+01   0.30000000E+01   0.30000000E+01   0.30000000E+01
/

ACTNUM
           1           1           1           1           1           1
           1           1           1           1           1           1
           1           1           1           1           1           1
           1           1           1           1           1           1
           1           1           1
/

