SPECGRID
ZCORN
0 1 11*0 0 0 0 0 1 0 1-- 2 0 2 2 0 0 1 32*0 0  0 1 2 2
/
ZCORN
0 1 11*0 0 0 0 0 1 0 1-- 2 0 2 2 0 0 1 32*0 0 0 0 0 0
/
ACTNUM 0 0 2 1 0 „                       7 1 2