MAPU'7'
/
'   џџ '
/

SPECGRID
  2  2  2 1  F /?

COORD
   0.0  0.00000000E+00  -0.10000000E1  +00  01   0.10000000E+01 00E00Э0MAPA0M+0 1 0  0.00000000  01   0.101 0M@PA0?E+01   0џџ 1.џџ  00000000E+00  -0.10000000E++00   0.0
   0.1000000  0.1   0.1000000  0.10000000E+00
   0.000E+01&   0.10000000E+01   0.10000000E+01 00000EА1
   0.1 0 0.+ 01  000E+ 0 0 0.0E+00   0000   0>0 0.1000000  0.1   0.1000000  0.10000000E+00
   0.000E+01&   0.10000000E+01   0.10000000E+01 00000EА1
   0.1 0 0.+ 01  000E+ 0 0 0.0E+00   0000   0>0
   0.5166у00  0.1   0.10000000E+01   0.10000аКдЯ1
   0.000E/

ZCORN
   0.000-0000E+00   0.2000000Mп  5.00+00E+00 00000ШЯЯКп  0.00000001E+00
  .00000   0.000000*0E+00   0.0000~+00   0.  0.00E'2MAPAX1   0+01
   0.10000000+0џџ  0.100+01   0.10000000E+01  0.   0.2  0.20000000E+01   0.24199999E+01
   0.20001   0.200006151   0.200000E+01 00000E+02
/

ACTNUM
           0         1           1        ы 0000       1          1
           1         1J