MAPUNI
/

SPECGRID   
 22Ś  2  1  F / 

CVORD
   [?ô0+