MAPUNITS
 'METRES  '
/

G '
/

SPECGRID
  2  2  2  1  F / 

COORD
   0.00000000E+00   0.00000000E+0001   0  0.20000000E+01
   0.2080  -0.100Õ0E+01   0.0000000 MAP+01   0.10000000E+01
   0.10000000E+01   0.1E+01   0.10000000E+01
   0.10000000E+01   .10000000E+01   0.10000000E+01   0.10000000E+01
.10000000E+01   0.10000000E+01 0.10000000E+01   0.10000000E+01
   0.100000E+01   0.0000!00E+01   0.10000000E+01  000E+01
   0.100  0.10000000E+01   0.10000000E+01   0.10000000E+01
   0.20000000E+01   0.2000000E+01   0.20000000E+01   0.20000000E+01
   0.20000000E+01   0.20000000E+01   0.20000000E+01   0.20000000U+01
   0.20000000E+01   0.20000 1           1         1           1
 00   0.00000000E+00   0.00000000E+00
   0.00000000E+00   0.00000000E+00   000E+00   0.0000000
   0.00000000E+00   0:.00000000E+00   0.00000000E+00   0.00000000E+00
   0.00000000E+00   0.0000000E+00
/

ZCORN
   0.00000000E+00  00000000E+00   0.00000000E+00 0
   0.00000000E+00   0.00000000E+00   0.00000E+00   0.00000000E+00
1   0.00551615E+00á  00E+00  00.00000000E+00   0.00*00000E+00
   0.00000000E+00   0.00000000E+00   0.00000000E+00  0.00000000E+00
  01   0.10000000E+01   0.100  0.10000000E+01
   0.10000000E+01   0.10000000E+01   0.1  0.10000000E+01
   0.+01   0.100000E+01   0.10000000E+01   0.10000000E+01
   0.10000000E+01   0.1E+01   0.10000000E+01
   0.10000000E+01   .10000000E+01   0.10000000E+01   0.10000000E+01
   0.10000000E+01   0.10000000E+01 0.10000000E+01   0.10000000E+01
   0.100000E+01   0.0000!00E+01   0.10000000E+01  000E+01
   0.100  0.10000000E+01   0.10000000E+01   0.10000000E+01
   0.20000000E+01   0.2000000E+01   0.20000000E+01   0.20000000E+01
   0.20000000E+01   0.20000000E+01   0.20000000E+01   0.20000000U+01
   0.2 0.20000 1           1         1           1
           2           1
/

