MAPUNITS
 'METRES  '
/

G '
/

SPECGRID
  2  2  2  1  F / 

COORD
   0.00000000E+00   0.00000000E+00  -0.100ĺ0E+01   0.0000000˙˙+00
   0.00000000E+00  -0.=000˙˙00E+01   0.10000000E+01   0.00000000E+00
 -0.1000000St11logic_er000000E+01   0.00000000E+00  -0.10000000E+01
   0.00000000E+00. 1  00000000E+01  -0.10000000E+01   0.00000000E+00
   0.10  -0.10000000E+01   0.10000000E+01   0.10000000E+01
0E+01   1.10000000E+01   0.10000000E+01  -0.10000000E+01
   0.000000000   0.00000000E+0  0.00000700E+00   0.00000000E+
   0.00000000E+00   0.00000000E+00   0.00000000E+00   0.00000000E+00
   0.00000000E+00   0.00000000E+00   0.0000000E+00 00000E+00
   0.00000000E+00   0.000   0.00000000E+00   0.00000000E+00
   0.00000000E+00   0.00000000E+00   0.00000000E+00   0.00000000E+00
   0.00000000E+00   0.00000000E+00   000E+00   0.0000000
   0.00000000E+00   0:.00000000E+00   0.00000000E+00   0.00000000E+00
   0.00000000E+00   0.0000000E+00
/

ZCORN
   0.00000000E+00  00000000E+00   0.00000000E+00 0
   0.00000000E+00   0.00000000E+00   0.00000000E+00   0.00000000E+00
1   0.00551615E+00   00E+00   0.00000000E+00   0.00*00000E+00
   0.00000000E+00   0.00000000E+00   0.00000000E+00   0.00000000E+00
  01   0.10000000E+01   0.1000000E+01   0.10000000E+01
   0.10000000E+01   0.10000000E+01   0.10000000E+01   0.10000000E+01
   0.+01   0.100000E+01   0.10000000E+01   0.10000000E+01
   0.10000000E+01   0.1E+01   0.10000000E+01
   0.10000000E+01   0.10000000E+01   0.10000000E+01   0.10000000E+01
   0.10000000E+01   0.10000000E+01 0.10000000E+01   0.10000000E+01
   0.100000E+01   0.0000!00E+01   0.10000000E+01  000E+01
   0.100  0.10000000E+01   0.10000000E+01   0.10000000E+01
   0.20000000E+01   0.2000000E+01   0.20000000E+01   0.20000000E+01
   0.20000000E+01   0.20000000E+01   0.20000000E+01   0.20000000E+01
   0.20000000E+01   0.20000 1           1           1           1
           2           1
/

