SPECGRID
6*10
/
COORD
363*14.11E+01
/
ZCORN
8*0
/
