MAPUNI
/

SPECGRID
2  2  Ś  2  1  F /    [?ô0+