
MAPUNITS
 'METRES  'IDUNIT
 'METRES  ' '-        '
/

SPECGRID
  1  1  1  1  F
COORD
   0E+00
/

ZCORN
    0.-0000000E+00   0.00E+01)   0.„„„„„„ „„„„0000
0M