MAPUNITS
 'METRES  '
/

GRIDUNIT
 'METRES  ' '        '
/

SPECGRID
  2  2  2  1  F / 

COORD
   0.00000000E+00   0.00000000E+00  -0.10000000E+01   0.00000000E+00
   0.00000000E+00  -0.10000000E+01   0.10000000E+01   0.00000000E+00
  -0.10000000E+01   0.10000000E+01   0.00000000E+00  -0.10000000E+01
   0.00000000E+00   0.10000000E+01  -0.10000000E+01   0.00000000E+00
   0.10000000E+01  -0.10000000E+01   0.10000000E+01   0.10000000E+01
  -0.10000000E+01   0.10000000E+01   0.10000000E+01  -0.10000000E+01
   0.00000000E+00   0.00000000E+00   0.00000000E+00   0.00000000E+00
   0.00000000E+00   0.00000000E+00   0.00000000E+00   0.00000000E+00
   0.00000000E+00   0.00000000E+00   0.00000000E+00   0.00000000E+00
   0.00000000E+00   0.00000000E+00   0.00000000E+00   0.00000000E+00
   0.00000000E+00   0.00000000E+00   0.00000000E+00   0.00000000E+00
   0.00000000E+00   0.00000000E+00   0.00000000E+00   0.00000000E+00
   0.00000000E+00   0.00000000E+00   0.00000000E+00   0.00000000E+00
   0.00000000E+00   0.00000000E+00
/

ZCORN
   0.00000000E+00   0.00000000E+00   0.00000000E+00   0.00000000E+00
   0.00000000E+00   0.00000000E+00   0.00000000E+00   0.00000000E+00
   0.00000000E+00   0.00000000E+00   0.00000000E+00   0.00000000E+00
   0.00000000E+00   0.00000000E+00   0.00000000E+00   0.00000000E+00
  *0.10000000E+01   0.10000000E+01   0.10000000E+01   0.10000000E+01
   0.10000000E+01   0.10000000E+01   0.10000000E+01   0.10000000E+01
   0.10000000E+01   0.10000000E+01   0.10000000E+01   0.10000000E+01
   0.10000000E+01   0.10000000E+01   0.10000000E+01   0.10000000E+01
   0.101
   0.20000000E+01   0.20000000E+01   0.20000000E+01   0.20000000E+01
   0.20000000E+01   0.20000000E+01   0.20000000E+01 000E+01
   0.1000000000E+01   0.20000000E+01   0.20000000E+01
   0..10000000E+01
   0.10000000E+01   0.10000000E+01   0.10000000E+01   0.10000000E+01
   0.10000000E+01   0.10000000E+01   0.10000000E+01   0.10000000E+01
20000000E+01   0.20000000E+01   0.20000000E+01   0.20000000E+01
   0.20000000E+01   0.20000000E+01   0.20000000E+01   0.42000000E+02
/

ACTNUM
           1           1           1           1           1           1
           1           1
/

