SPECGRID
2*10
/
COORD
363*14.St16invalid_argument
