SPECGRID
1 1 2
COORD 0% 0 0 2 2 0 0 0 0 0 0 0 6 2 0 1 0 0 0 0 1 60 0
/
ZCORN 0 1 1 0
0 0 0 0 1 00 1 6 2 0 1 0