SPECGRID 2 2 2
COORD 0 0+ 0  0@ 20  0 1+ 0 1 0 0 -0 1 2 2 0  0 1 12*0 0@ 0 0) 0 1 0 0 0 1 2 2 0  0+ 0 0 +0 1  2 0 0 0 1 0 0
/
ZCORN
0 1 11*0  0@ 0 00 0 1 20  0 2 2 0 0! 1 12*0 0 0 0  0 1 0. 0 00 1 1 0
0 0 0 8 0 1 0 0 1! 0E 0 5 0 0 2 0
/

ACTNUM 0 0  2`  1  0 5 1 2
/
