SPECGRID
2 2 1  
COORD 0 0 0! 0 2 0 1+ 0 1 0 1 0 1  6 2 0 1 0 0 0 1 2 2 0  0 0 +0E .0 0 +0 1  0 0 1 0  0 0 0 00
0 8 0 10 0ÿ 0 1! 0 0 0 0 10 6Ð0 0
/
ZCORN 0` 1 1 0
0 0 0 0 1 0 1 1 0 1D 0 0 0! 0 2 0 1+ 0 1 0 1 0 1  6 2 0 1 0