
MAPUNITS
 'METRES  '
/

GRIDUNIT
 'METRES  ' '        '
/

SPECGRID
  1  1  1  1  F /

COORD
   0.00000000E+00
/

ZCORN
   0.00000000E+00   0.00000000E+00   0.00000000E+00   0.00000000E+00
   0.00000000E+00   0.00000000E+00   0.00000000E+00   0.00000000E+00
/

ACTNUM
           1
/
