SPECGRID
6*10
/
COORD
726*14.11E+01
/
ZCORN
8*0
/
